40
Lattice="8.175311264126 0.0 0.0 0.0 11.637323534169 0.0 0.0 0.0 16.259785736408" Properties=species:S:1:pos:R:3:forces:R:3:magmoms:R:1 energy=-144.80754858 stress="-0.008038251908562614 1.5435252068309296e-08 1.7264014242193093e-08 1.5435252068309296e-08 -0.008440325438806953 2.406101768027996e-08 1.7264014242193093e-08 2.406101768027996e-08 -0.005051042210289629" dipole="0.0 0.0 0.0" magmom=0.0 free_energy=-144.80720466 pbc="T T T"
Pb       0.00000213       5.81865711       8.12988693       0.00005737      -0.00028445       0.00022118       0.00000000
Pb       0.00000213       5.81865711      16.25977980       0.00010045       0.00002016      -0.00001525       0.00000000
Pb       4.08765367       0.00000314       4.06494977       0.00016835      -0.00012473      -0.00006173       0.00000000
Pb       4.08765367       0.00000314      12.19484264      -0.00006238       0.00012015       0.00003742       0.00000000
Pb       4.08765980       5.81866468       4.06494074      -0.00022902       0.00015044      -0.00016085       0.00000000
Pb       4.08765980       5.81866468      12.19483361       0.00014060       0.00015469      -0.00000129       0.00000000
Pb       8.17530734      11.63731888       0.00000138      -0.00001843      -0.00002229       0.00002696       0.00000000
Pb       8.17530734      11.63731888       8.12989425      -0.00020424       0.00001129      -0.00018462       0.00000000
Cs       4.68525126       2.90932844       0.38520270       0.00088617      -0.00000720      -0.13917774       0.00000000
Cs       4.68525126       2.90932844       8.51509557       0.00089687       0.00002695      -0.13925467       0.00000000
Cs       7.57772511       8.72798520       4.45015084      -0.00087216      -0.00001733      -0.13925447       0.00000000
Cs       7.57772511       8.72798520      12.58004371      -0.00087213       0.00001608      -0.13921998       0.00000000
Cs       3.49006286       8.72800720       7.74469635      -0.00090294      -0.00003591       0.13920135       0.00000000
Cs       3.49006286       8.72800720      15.87458922      -0.00088696       0.00000198       0.13926994       0.00000000
Cs       0.59758664       2.90933391       3.67974512       0.00088921       0.00001554       0.13922944       0.00000000
Cs       0.59758664       2.90933391      11.80963799       0.00089615       0.00000588       0.13926157       0.00000000
Br       2.50643263       5.54105842       1.56332482       0.08647248      -0.10044949      -0.05089186       0.00000000
Br       2.50643263       5.54105842       9.69321769       0.08644415      -0.10046721      -0.05095216       0.00000000
Br       1.58122227      11.35971530       5.62827914      -0.08640135      -0.10050608      -0.05096238       0.00000000
Br       1.58122227      11.35971530      13.75817201      -0.08650570      -0.10051168      -0.05090526       0.00000000
Br       1.58123167       6.09626593       5.62827451      -0.08643235       0.10049633      -0.05096747       0.00000000
Br       1.58123167       6.09626593      13.75816738      -0.08645380       0.10051914      -0.05094649       0.00000000
Br       5.66887602      11.35972891       6.56656748      -0.08649485      -0.10052209       0.05085896       0.00000000
Br       5.66887602      11.35972891      14.69646034      -0.08641190      -0.10051197       0.05096047       0.00000000
Br       5.66887970       6.09626290       6.56656292      -0.08642971       0.10051488       0.05095334       0.00000000
Br       5.66887970       6.09626290      14.69645579      -0.08643556       0.10051320       0.05092548       0.00000000
Br       6.59408188       0.27760998       2.50161714       0.08641819       0.10045266       0.05099378       0.00000000
Br       6.59408188       0.27760998      10.63151001       0.08647866       0.10047693       0.05095055       0.00000000
Br       6.59408605       5.54104818       2.50160828       0.08643012      -0.10045946       0.05099698       0.00000000
Br       6.59408605       5.54104818      10.63150115       0.08645688      -0.10046123       0.05091934       0.00000000
Br       2.50642282       0.27760312       1.56333539       0.08647227       0.10045826      -0.05090727       0.00000000
Br       2.50642282       0.27760312       9.69322826       0.08644081       0.10047330      -0.05095009       0.00000000
Br       7.99528143       8.72798858       0.48158494       0.08907513      -0.00000766       0.05402093       0.00000000
Br       7.99528143       8.72798858       8.61147780       0.08906648      -0.00005080       0.05398656       0.00000000
Br       4.26768195       2.90933554       4.54653877      -0.08908152       0.00000952       0.05399237       0.00000000
Br       4.26768195       2.90933554      12.67643164      -0.08908396       0.00002167       0.05399806       0.00000000
Br       0.18003801       2.90932332       7.64830468      -0.08906469       0.00003999      -0.05398397       0.00000000
Br       0.18003801       2.90932332      15.77819755      -0.08908041      -0.00000050      -0.05400462       0.00000000
Br       3.90762956       8.72799684       3.58335678       0.08906885      -0.00001681      -0.05399562       0.00000000
Br       3.90762956       8.72799684      11.71324965       0.08906486      -0.00004218      -0.05400690       0.00000000
40
Lattice="8.175311264126 0.0 0.0 0.0 11.637323534169 0.0 0.0 0.0 16.259785736408" Properties=species:S:1:pos:R:3:forces:R:3:magmoms:R:1 energy=-144.79068654999998 stress="-0.00809050032419497 8.201083344630966e-05 -9.740050377347261e-05 8.201083344630966e-05 -0.008706781436515144 1.8849089175275026e-05 -9.740050377347261e-05 1.8849089175275026e-05 -0.005004252237806714" dipole="0.0 0.0 0.0" magmom=0.0 free_energy=-144.79034055 pbc="T T T"
Pb      -0.00950016       5.80945376       8.11911725       0.03022803       0.03429203      -0.04568331       0.00000000
Pb      -0.01040213       5.80207515      16.25397314       0.05610001       0.09078433       0.05671028       0.00000000
Pb       4.09184637       0.00640369       4.06747539      -0.00411451      -0.02372290      -0.01118262       0.00000000
Pb       4.10685320       0.00911182      12.20578414      -0.04938437      -0.02006664      -0.03331857       0.00000000
Pb       4.10010660       5.81156437       4.06242502      -0.06398891       0.05739302      -0.02613578       0.00000000
Pb       4.08002379       5.81168063      12.20253779       0.04214104       0.08538829      -0.04669932       0.00000000
Pb       8.16977019      11.64980314      -0.00658360       0.00737280      -0.07077069       0.01019218       0.00000000
Pb       8.18076277      11.62845327       8.12705096       0.03607040      -0.01425772      -0.02247449       0.00000000
Cs       4.68421642       2.93571685       0.37458027      -0.01163801      -0.04908526      -0.11583373       0.00000000
Cs       4.67216963       2.91849296       8.48816146      -0.00433595      -0.02533916      -0.11330110       0.00000000
Cs       7.56725430       8.72546580       4.44665649      -0.00279949       0.00634064      -0.15056784       0.00000000
Cs       7.57308047       8.73123682      12.58087416       0.00784839      -0.00237997      -0.14038888       0.00000000
Cs       3.49920671       8.71447236       7.76128475      -0.01471293       0.02514712       0.12940080       0.00000000
Cs       3.48625865       8.71791514      15.90138971       0.00106255       0.01723010       0.12895299       0.00000000
Cs       0.60337430       2.92450695       3.67119895       0.00116151      -0.02282148       0.14312214       0.00000000
Cs       0.59505038       2.91647314      11.82050049       0.00473862      -0.01140849       0.12310121       0.00000000
Br       2.51387009       5.53587035       1.55285760       0.07959913      -0.08566884      -0.03162052       0.00000000
Br       2.50222050       5.55010628       9.68427530       0.09900256      -0.10218554      -0.01384793       0.00000000
Br       1.57458839      11.32013794       5.61692847      -0.04318202      -0.06038149      -0.05446015       0.00000000
Br       1.58128259      11.35134958      13.76663111      -0.01652505      -0.07940997      -0.11346026       0.00000000
Br       1.57007543       6.11303417       5.59705482      -0.07344936       0.07356719      -0.02448251       0.00000000
Br       1.58329230       6.10962306      13.76791465      -0.07529037       0.08245056      -0.07795990       0.00000000
Br       5.69112595      11.36322508       6.58245640      -0.20747535      -0.10381561      -0.04160236       0.00000000
Br       5.66578058      11.36804464      14.71092670      -0.15421287      -0.10293181       0.00063964       0.00000000
Br       5.63957784       6.08158694       6.57271848      -0.04608537       0.10288510       0.07633836       0.00000000
Br       5.67342348       6.08637595      14.72235994      -0.15737651       0.10621394      -0.03154216       0.00000000
Br       6.59598789       0.27823714       2.48289395       0.03333373       0.11025871       0.11318076       0.00000000
Br       6.60954353       0.27905742      10.61767218       0.01112202       0.10010943       0.12320710       0.00000000
Br       6.60246541       5.54155219       2.50818593       0.09383228      -0.09140133       0.04030345       0.00000000
Br       6.60564330       5.52810762      10.60683329       0.00745877      -0.08373981       0.12722161       0.00000000
Br       2.47056402       0.26522387       1.56338753       0.20802592       0.12760067       0.03177924       0.00000000
Br       2.47733850       0.26825665       9.71148708       0.19209329       0.11886064       0.00995534       0.00000000
Br       8.00304737       8.73535032       0.46224474       0.08169730      -0.05052130       0.05340701       0.00000000
Br       7.99495525       8.72494007       8.60735233       0.08169526      -0.01740268       0.05945637       0.00000000
Br       4.29199813       2.91236945       4.52883910      -0.10210455       0.00854163       0.06524619       0.00000000
Br       4.28311169       2.95383508      12.66977107      -0.09264418      -0.23424356       0.06764155       0.00000000
Br       0.16867856       2.91055436       7.67214496      -0.07208815      -0.01942709      -0.07745164       0.00000000
Br       0.18540468       2.90843581      15.80799359      -0.08000755       0.03009048      -0.08485257       0.00000000
Br       3.92329629       8.74438896       3.58651577       0.09596331      -0.05921156      -0.05529839       0.00000000
Br       3.90948673       8.71382992      11.72791304       0.10086857       0.15303901      -0.04769219       0.00000000
40
Lattice="8.175311264126 0.0 0.0 0.0 11.637323534169 0.0 0.0 0.0 16.259785736408" Properties=species:S:1:pos:R:3:forces:R:3:magmoms:R:1 energy=-144.72618782 stress="-0.00818316000857226 0.00017313342761267686 -0.0002139520172431666 0.00017313342761267686 -0.009107225502213495 3.875768700768699e-05 -0.0002139520172431666 3.875768700768699e-05 -0.004990320502871739" dipole="0.0 0.0 0.0" magmom=0.0 free_energy=-144.72583406 pbc="T T T"
Pb      -0.01892895       5.80034502       8.10805728       0.07009943       0.07966553      -0.08431151       0.00000000
Pb      -0.02061842       5.78579918      16.24839009       0.12003967       0.19191682       0.11634979       0.00000000
Pb       4.09604973       0.01273903       4.06996676      -0.01483150      -0.05752569      -0.02397961       0.00000000
Pb       4.12595886       0.01819168      12.21664798      -0.08554904      -0.04320012      -0.06158164       0.00000000
Pb       4.11234312       5.80468164       4.05976922      -0.13150790       0.11728177      -0.05284736       0.00000000
Pb       4.07253026       5.80504582      12.21007868       0.07039549       0.19914189      -0.09685719       0.00000000
Pb       8.16422801      11.66204571      -0.01316792       0.01914259      -0.15912198       0.01880586       0.00000000
Pb       8.18642567      11.61945781       8.12408237       0.07117654      -0.01870177      -0.04495050       0.00000000
Cs       4.68308941       2.96193582       0.36303818      -0.02017711      -0.09402683      -0.09751535       0.00000000
Cs       4.65896311       2.92753824       8.46020981      -0.01101559      -0.04582606      -0.09667484       0.00000000
Cs       7.55668842       8.72297462       4.44204024      -0.00995653       0.01107189      -0.16028310       0.00000000
Cs       7.56845987       8.73449429      12.58068772       0.01385356      -0.00244950      -0.13819611       0.00000000
Cs       3.50830857       8.70102422       7.77893422      -0.02716319       0.04689182       0.12397458       0.00000000
Cs       3.48243505       8.70787663      15.92932082       0.00250652       0.02911160       0.12418818       0.00000000
Cs       0.60921170       2.93962194       3.66363457       0.00460533      -0.04469694       0.13811071       0.00000000
Cs       0.59253055       2.92358016      11.83233732       0.00625293      -0.02246042       0.10625780       0.00000000
Br       2.52232520       5.52960714       1.54193254       0.07074282      -0.07258386      -0.01459339       0.00000000
Br       2.49917808       5.55798037       9.67510132       0.10605690      -0.10426124       0.01860505       0.00000000
Br       1.56738392      11.27954663       5.60483689       0.00116060      -0.02376350      -0.05463370       0.00000000
Br       1.58114309      11.34196190      13.77377560       0.04716470      -0.05794789      -0.16799259       0.00000000
Br       1.55794956       6.13081350       5.56531580      -0.05886618       0.04480627      -0.00512574       0.00000000
Br       1.58445524       6.12407461      13.77678671      -0.06414511       0.06414940      -0.10191729       0.00000000
Br       5.71102033      11.36548811       6.59795449      -0.31973140      -0.10337203      -0.12569803       0.00000000
Br       5.66079429      11.37517231      14.72550396      -0.21655368      -0.10104893      -0.04267013       0.00000000
Br       5.60950854       6.06805311       6.57984302      -0.00864180       0.09824102       0.10282908       0.00000000
Br       5.67609254       6.07770562      14.74806659      -0.22605941       0.10895496      -0.10674681       0.00000000
Br       6.59831143       0.28020491       2.46540879      -0.02113741       0.11887472       0.17001308       0.00000000
Br       6.62525022       0.28172832      10.60522871      -0.05957296       0.09938564       0.19111713       0.00000000
Br       6.61204161       5.54095218       2.51529889       0.09894223      -0.08276273       0.03006269       0.00000000
Br       6.61737336       5.51405999      10.58353122      -0.06354586      -0.07232528       0.19475261       0.00000000
Br       2.43697040       0.25430263       1.56382515       0.31281346       0.14669046       0.10879089       0.00000000
Br       2.45037460       0.26028390       9.72999675       0.28481100       0.13310429       0.06772606       0.00000000
Br       8.01185872       8.74215233       0.44341382       0.07295626      -0.09150727       0.04698579       0.00000000
Br       7.99561674       8.72165893       8.60391794       0.07225450      -0.03309319       0.06451550       0.00000000
Br       4.31525039       2.91552851       4.51180388      -0.10899630       0.01442504       0.07338989       0.00000000
Br       4.29752878       2.99581335      12.66388270      -0.08782933      -0.46528701       0.08914957       0.00000000
Br       0.15636452       2.91155876       7.69521667      -0.05682867      -0.04208328      -0.09718450       0.00000000
Br       0.18984007       2.90790662      15.83697386      -0.06908046       0.05543596      -0.11255806       0.00000000
Br       3.94023765       8.76018043       3.58902717       0.10322627      -0.10937019      -0.05780834       0.00000000
Br       3.91257949       8.70141652      11.74210306       0.11298863       0.28826661      -0.04149847       0.00000000
40
Lattice="8.175311264126 0.0 0.0 0.0 11.637323534169 0.0 0.0 0.0 16.259785736408" Properties=species:S:1:pos:R:3:forces:R:3:magmoms:R:1 energy=-144.63083043 stress="-0.008318006477554013 0.000264970144045682 -0.00032580379917125304 0.000264970144045682 -0.009648966461812947 6.0695237177686325e-05 -0.00032580379917125304 6.0695237177686325e-05 -0.005032367621226496" dipole="0.0 0.0 0.0" magmom=0.0 free_energy=-144.63046352 pbc="T T T"
Pb      -0.02816430       5.79147919       8.09644314       0.11036851       0.12659338      -0.11847263       0.00000000
Pb      -0.03041834       5.77018971      16.24327260       0.18757906       0.29890801       0.17136910       0.00000000
Pb       4.10024387       0.01889549       4.07238142      -0.02757522      -0.08984842      -0.03411956       0.00000000
Pb       4.14493752       0.02719925      12.22737891      -0.13559962      -0.07590271      -0.10286893       0.00000000
Pb       4.12413850       5.79825018       4.05682744      -0.19884114       0.17609091      -0.07489225       0.00000000
Pb       4.06525934       5.79924976      12.21727354       0.08737069       0.33186561      -0.14824359       0.00000000
Pb       8.15869607      11.67371770      -0.01975853       0.03213650      -0.24681818       0.01823830       0.00000000
Pb       8.19250367      11.61024552       8.12086035       0.10994257      -0.02188081      -0.06499199       0.00000000
Cs       4.68179870       2.98784361       0.35061741      -0.02496217      -0.14673101      -0.08097162       0.00000000
Cs       4.64548650       2.93637826       8.43115011      -0.01628534      -0.07042797      -0.07481878       0.00000000
Cs       7.54589809       8.72052865       4.43618578      -0.01588068       0.01720210      -0.16772993       0.00000000
Cs       7.56387426       8.73778060      12.57948815       0.01901490      -0.00329168      -0.13668981       0.00000000
Cs       3.51734246       8.68772592       7.79774348      -0.04067083       0.07383599       0.11841532       0.00000000
Cs       3.47857490       8.69790691      15.95856086       0.00601503       0.04422675       0.11670024       0.00000000
Cs       0.61516655       2.95462705       3.65697146       0.00896605      -0.07486832       0.14086243       0.00000000
Cs       0.59002027       2.93062497      11.84512097       0.01143212      -0.03533767       0.09131310       0.00000000
Br       2.53176202       5.52237128       1.53067320       0.05640279      -0.05585761       0.00538415       0.00000000
Br       2.49738183       5.56469946       9.66602194       0.10737065      -0.10771291       0.04777244       0.00000000
Br       1.56009015      11.23808372       5.59190732       0.04603551       0.02172609      -0.04670816       0.00000000
Br       1.58157519      11.33173473      13.77897954       0.09948396      -0.03515516      -0.21060216       0.00000000
Br       1.54493373       6.14939293       5.53305890      -0.03590603       0.01040209       0.01817430       0.00000000
Br       1.58485475       6.13951374      13.78454660      -0.05516384       0.04264595      -0.12427700       0.00000000
Br       5.72731173      11.36652643       6.61214630      -0.42034941      -0.10240422      -0.19852739       0.00000000
Br       5.65310274      11.38117335      14.73977151      -0.26347589      -0.10023658      -0.07598989       0.00000000
Br       5.57890256       6.05551981       6.58832040       0.03378756       0.09759330       0.12378114       0.00000000
Br       5.67605061       6.07023593      14.77284396      -0.28637642       0.11722880      -0.17999304       0.00000000
Br       6.60041125       0.28364665       2.44974034      -0.07110254       0.12502507       0.22527928       0.00000000
Br       6.64045783       0.28564628      10.59493098      -0.12391428       0.09743582       0.25112049       0.00000000
Br       6.62295856       5.53933701       2.52287956       0.09871435      -0.07162213       0.01946401       0.00000000
Br       6.62849894       5.49893114      10.56226325      -0.12666195      -0.05633345       0.25893912       0.00000000
Br       2.40669901       0.24500866       1.56559214       0.40591244       0.16343505       0.17340646       0.00000000
Br       2.42648752       0.25381551       9.74959576       0.36591136       0.14653978       0.10996852       0.00000000
Br       8.02168381       8.74793907       0.42488405       0.06056567      -0.12447610       0.04762273       0.00000000
Br       7.99716648       8.71792822       8.60121889       0.06289528      -0.04640878       0.07117770       0.00000000
Br       4.33751079       2.91890835       4.49541671      -0.11749410       0.01722647       0.08515643       0.00000000
Br       4.31108464       3.03273539      12.65899404      -0.08221266      -0.69157400       0.11464884       0.00000000
Br       0.14318261       2.91206576       7.71743759      -0.03954010      -0.06682502      -0.12125444       0.00000000
Br       0.19349898       2.90804403      15.86500116      -0.05776632       0.07324942      -0.14447914       0.00000000
Br       3.95867758       8.77486842       3.59087155       0.10436967      -0.15693448      -0.06248948       0.00000000
Br       3.91709079       8.69233081      11.75599205       0.12550385       0.39941664      -0.04067430       0.00000000
40
Lattice="8.175311264126 0.0 0.0 0.0 11.637323534169 0.0 0.0 0.0 16.259785736408" Properties=species:S:1:pos:R:3:forces:R:3:magmoms:R:1 energy=-144.52334187 stress="-0.008417930691851974 0.0003574823290793085 -0.0004239672775032919 0.0003574823290793085 -0.010226287112976953 7.864591728787259e-05 -0.0004239672775032919 7.864591728787259e-05 -0.005048888858433654" dipole="0.0 0.0 0.0" magmom=0.0 free_energy=-144.52295654 pbc="T T T"
Pb      -0.03708087       5.78301654       8.08401886       0.14529893       0.16993498      -0.14503652       0.00000000
Pb      -0.03954831       5.75564797      16.23885054       0.24788223       0.40151664       0.21515686       0.00000000
Pb       4.10439937       0.02476285       4.07468796      -0.04209835      -0.12305841      -0.04338742       0.00000000
Pb       4.16369042       0.03604533      12.23785888      -0.17846904      -0.10424790      -0.13788142       0.00000000
Pb       4.13525428       5.79250782       4.05346918      -0.25545423       0.22832099      -0.09368546       0.00000000
Pb       4.05824164       5.79488988      12.22392697       0.09489149       0.46327788      -0.19714139       0.00000000
Pb       8.15319515      11.68448158      -0.02640656       0.04848883      -0.33413427       0.01309783       0.00000000
Pb       8.19923132      11.60072999       8.11726235       0.14394431      -0.02386889      -0.07870014       0.00000000
Cs       4.68029674       3.01323776       0.33733243      -0.02650299      -0.19790291      -0.06574154       0.00000000
Cs       4.63159742       2.94489360       8.40090966      -0.02154905      -0.09561907      -0.05270373       0.00000000
Cs       7.53475666       8.71815574       4.42897315      -0.02251392       0.02376561      -0.17629014       0.00000000
Cs       7.55932851       8.74111419      12.57725938       0.02451374      -0.00290840      -0.13437326       0.00000000
Cs       3.52627426       8.67468040       7.81783060      -0.05381626       0.10070624       0.11559630       0.00000000
Cs       3.47467498       8.68804504      15.98929292       0.00950602       0.06548941       0.10588457       0.00000000
Cs       0.62131665       2.96940890       3.65119724       0.01409814      -0.10329396       0.14209559       0.00000000
Cs       0.58753933       2.93756358      11.85885262       0.01632959      -0.04800978       0.07789737       0.00000000
Br       2.54209244       5.51429631       1.51923483       0.03724756      -0.03723087       0.02468516       0.00000000
Br       2.49685714       5.57024982       9.65732832       0.10180606      -0.11088385       0.07035486       0.00000000
Br       1.55319977      11.19598470       5.57812656       0.08519602       0.06474361      -0.03157249       0.00000000
Br       1.58323103      11.32085612      13.78172591       0.13437404      -0.01351428      -0.23489136       0.00000000
Br       1.53119668       6.16850320       5.50032266      -0.00966134      -0.02563296       0.04014068       0.00000000
Br       1.58458959       6.15580903      13.79095819      -0.04859774       0.02199876      -0.14068347       0.00000000
Br       5.73882632      11.36633734       6.62422330      -0.49504311      -0.10009049      -0.25083678       0.00000000
Br       5.64202791      11.38608131      14.75342163      -0.28962128      -0.09892726      -0.08831925       0.00000000
Br       5.54804372       6.04390533       6.59849298       0.07043347       0.09501294       0.13742380       0.00000000
Br       5.67251215       6.06403481      14.79596287      -0.33274326       0.12618642      -0.23912465       0.00000000
Br       6.60168881       0.28868931       2.43648114      -0.11107076       0.12898696       0.26854720       0.00000000
Br       6.65448346       0.29083873      10.58747468      -0.17089252       0.09402111       0.29238436       0.00000000
Br       6.63531777       5.53681248       2.53086260       0.09390214      -0.05889032       0.01024846       0.00000000
Br       6.63832028       5.48278580      10.54369368      -0.17672927      -0.04074084       0.30724884       0.00000000
Br       2.38072432       0.23750762       1.56951421       0.47151994       0.17434530       0.22064793       0.00000000
Br       2.40654765       0.24899524       9.77096312       0.42009849       0.15737651       0.13240417       0.00000000
Br       8.03246177       8.75233220       0.40653280       0.04656725      -0.14626090       0.04918346       0.00000000
Br       7.99951763       8.71354994       8.59932999       0.05360227      -0.05665931       0.07759327       0.00000000
Br       4.35882089       2.92257192       4.47971278      -0.12288879       0.01797744       0.09555385       0.00000000
Br       4.32393164       3.06201839      12.65539855      -0.07219791      -0.87519356       0.13967428       0.00000000
Br       0.12923151       2.91176810       7.73866145      -0.02347279      -0.09191967      -0.14325661       0.00000000
Br       0.19653231       2.90907854      15.89187414      -0.04568340       0.07988605      -0.17125087       0.00000000
Br       3.97879233       8.78796008       3.59199326       0.10231444      -0.19616037      -0.06936973       0.00000000
Br       3.92323210       8.68792303      11.76968646       0.13699103       0.47160141      -0.04157262       0.00000000
40
Lattice="8.175311264126 0.0 0.0 0.0 11.637323534169 0.0 0.0 0.0 16.259785736408" Properties=species:S:1:pos:R:3:forces:R:3:magmoms:R:1 energy=-144.42372726 stress="-0.008471593701837145 0.00044524720354726077 -0.0004965440324567743 0.00044524720354726077 -0.010785211215584855 9.012782244188394e-05 -0.0004965440324567743 9.012782244188394e-05 -0.005032683135754318" dipole="0.0 0.0 0.0" magmom=0.0 free_energy=-144.42331826 pbc="T T T"
Pb      -0.04557202       5.77510899       8.07054550       0.16941640       0.20276298      -0.16948449       0.00000000
Pb      -0.04777443       5.74257750      16.23531557       0.29203462       0.49231127       0.24194713       0.00000000
Pb       4.10847765       0.03022058       4.07685705      -0.05716282      -0.15056565      -0.04866545       0.00000000
Pb       4.18214921       0.04465789      12.24799427      -0.21874416      -0.12274645      -0.17163381       0.00000000
Pb       4.14548859       5.78767609       4.04956994      -0.29893471       0.27461223      -0.10745787       0.00000000
Pb       4.05146679       5.79259124      12.22984377       0.09509809       0.56590685      -0.23705468       0.00000000
Pb       8.14776225      11.69398193      -0.03318737       0.06437450      -0.40834687       0.00077349       0.00000000
Pb       8.20683607      11.59082305       8.11318716       0.17255267      -0.02496779      -0.08561941       0.00000000
Cs       4.67855557       3.03791776       0.32317419      -0.02273213      -0.25270936      -0.05469911       0.00000000
Cs       4.61714292       2.95295396       8.36939550      -0.02646822      -0.12364235      -0.02536475       0.00000000
Cs       7.52312315       8.71588841       4.42025078      -0.02852681       0.03139455      -0.18373454       0.00000000
Cs       7.55483021       8.74452397      12.57397557       0.03052571      -0.00215724      -0.13144109       0.00000000
Cs       3.53507119       8.66199468       7.83935740      -0.06714665       0.13138822       0.11322512       0.00000000
Cs       3.47073088       8.67837678      16.02170482       0.01553066       0.08555455       0.09178525       0.00000000
Cs       0.62775068       2.98386273       3.64630061       0.02204589      -0.13385137       0.14579075       0.00000000
Cs       0.58510602       2.94435173      11.87356016       0.02328050      -0.06122659       0.06669297       0.00000000
Br       2.55318172       5.50552874       1.50776397       0.01071047      -0.01426874       0.04618065       0.00000000
Br       2.49756441       5.57460416       9.64924213       0.08951919      -0.11443007       0.08888078       0.00000000
Br       1.54715144      11.15344618       5.56355544       0.11973135       0.11223272      -0.00587080       0.00000000
Br       1.58658169      11.30949340      13.78167482       0.14877523       0.00925165      -0.23813992       0.00000000
Br       1.51693901       6.18785900       5.46711964       0.01964338      -0.06484381       0.06822858       0.00000000
Br       1.58372126       6.17285101      13.79583389      -0.04440934      -0.00066815      -0.15291422       0.00000000
Br       5.74461283      11.36491641       6.63358070      -0.53847736      -0.09637689      -0.27917899       0.00000000
Br       5.62708036      11.38992093      14.76638937      -0.28786512      -0.09817330      -0.07704143       0.00000000