40
Lattice="8.175311264126 0.0 0.0 0.0 11.637323534169 0.0 0.0 0.0 16.259785736408" Properties=species:S:1:pos:R:3:forces:R:3:magmoms:R:1 energy=-144.80754858 stress="-0.008038251896079596 1.5441493577435182e-08 1.7251531223941327e-08 1.5441493577435182e-08 -0.00844032545753148 2.406101768027996e-08 1.7251531223941327e-08 2.406101768027996e-08 -0.00505104220404812" dipole="0.0 0.0 0.0" magmom=0.0 free_energy=-144.80720466 pbc="T T T"
Pb       0.00000213       5.81865711       8.12988693       0.00005738      -0.00028445       0.00022118       0.00000000
Pb       0.00000213       5.81865711      16.25977980       0.00010045       0.00002016      -0.00001525       0.00000000
Pb       4.08765367       0.00000314       4.06494977       0.00016835      -0.00012473      -0.00006173       0.00000000
Pb       4.08765367       0.00000314      12.19484264      -0.00006239       0.00012015       0.00003742       0.00000000
Pb       4.08765980       5.81866468       4.06494074      -0.00022902       0.00015044      -0.00016085       0.00000000
Pb       4.08765980       5.81866468      12.19483361       0.00014060       0.00015469      -0.00000129       0.00000000
Pb       8.17530734      11.63731888       0.00000138      -0.00001843      -0.00002229       0.00002696       0.00000000
Pb       8.17530734      11.63731888       8.12989425      -0.00020424       0.00001129      -0.00018462       0.00000000
Cs       4.68525126       2.90932844       0.38520270       0.00088617      -0.00000720      -0.13917774       0.00000000
Cs       4.68525126       2.90932844       8.51509557       0.00089687       0.00002695      -0.13925467       0.00000000
Cs       7.57772511       8.72798520       4.45015084      -0.00087216      -0.00001733      -0.13925447       0.00000000
Cs       7.57772511       8.72798520      12.58004371      -0.00087213       0.00001608      -0.13921998       0.00000000
Cs       3.49006286       8.72800720       7.74469635      -0.00090294      -0.00003591       0.13920135       0.00000000
Cs       3.49006286       8.72800720      15.87458922      -0.00088696       0.00000198       0.13926994       0.00000000
Cs       0.59758664       2.90933391       3.67974512       0.00088921       0.00001554       0.13922944       0.00000000
Cs       0.59758664       2.90933391      11.80963799       0.00089615       0.00000588       0.13926157       0.00000000
Br       2.50643263       5.54105842       1.56332482       0.08647248      -0.10044949      -0.05089186       0.00000000
Br       2.50643263       5.54105842       9.69321769       0.08644415      -0.10046721      -0.05095216       0.00000000
Br       1.58122227      11.35971530       5.62827914      -0.08640135      -0.10050608      -0.05096238       0.00000000
Br       1.58122227      11.35971530      13.75817201      -0.08650570      -0.10051167      -0.05090526       0.00000000
Br       1.58123167       6.09626593       5.62827451      -0.08643235       0.10049633      -0.05096747       0.00000000
Br       1.58123167       6.09626593      13.75816738      -0.08645380       0.10051914      -0.05094649       0.00000000
Br       5.66887602      11.35972891       6.56656748      -0.08649485      -0.10052209       0.05085896       0.00000000
Br       5.66887602      11.35972891      14.69646034      -0.08641190      -0.10051197       0.05096047       0.00000000
Br       5.66887970       6.09626290       6.56656292      -0.08642971       0.10051488       0.05095334       0.00000000
Br       5.66887970       6.09626290      14.69645579      -0.08643556       0.10051320       0.05092548       0.00000000
Br       6.59408188       0.27760998       2.50161714       0.08641819       0.10045266       0.05099378       0.00000000
Br       6.59408188       0.27760998      10.63151001       0.08647866       0.10047693       0.05095055       0.00000000
Br       6.59408605       5.54104818       2.50160828       0.08643012      -0.10045946       0.05099698       0.00000000
Br       6.59408605       5.54104818      10.63150115       0.08645688      -0.10046124       0.05091935       0.00000000
Br       2.50642282       0.27760312       1.56333539       0.08647227       0.10045826      -0.05090727       0.00000000
Br       2.50642282       0.27760312       9.69322826       0.08644081       0.10047330      -0.05095009       0.00000000
Br       7.99528143       8.72798858       0.48158494       0.08907513      -0.00000766       0.05402093       0.00000000
Br       7.99528143       8.72798858       8.61147780       0.08906648      -0.00005080       0.05398656       0.00000000
Br       4.26768195       2.90933554       4.54653877      -0.08908152       0.00000952       0.05399237       0.00000000
Br       4.26768195       2.90933554      12.67643164      -0.08908396       0.00002167       0.05399806       0.00000000
Br       0.18003801       2.90932332       7.64830468      -0.08906469       0.00003999      -0.05398397       0.00000000
Br       0.18003801       2.90932332      15.77819755      -0.08908041      -0.00000050      -0.05400462       0.00000000
Br       3.90762956       8.72799684       3.58335678       0.08906885      -0.00001681      -0.05399562       0.00000000
Br       3.90762956       8.72799684      11.71324965       0.08906486      -0.00004218      -0.05400690       0.00000000
40
Lattice="8.175311264126 0.0 0.0 0.0 11.637323534169 0.0 0.0 0.0 16.259785736408" Properties=species:S:1:pos:R:3:forces:R:3:magmoms:R:1 energy=-144.75839062 stress="-0.008108158271285642 5.743433576883212e-05 5.452367040306772e-05 5.743433576883212e-05 -0.008536974471123178 0.0001560337585472774 5.452367040306772e-05 0.0001560337585472774 -0.005260014957521967" dipole="0.0 0.0 0.0" magmom=0.0 free_energy=-144.75805038 pbc="T T T"
Pb      -0.00152745       5.82810184       8.13242309       0.00903979      -0.04322897      -0.02965139       0.00000000
Pb       0.00489852       5.81242467      16.25259764      -0.09698516      -0.00089294       0.02358267       0.00000000
Pb       4.08301806      -0.00963497       4.06261801      -0.01299663      -0.01479451       0.03568948       0.00000000
Pb       4.07929168      -0.00321242      12.20036597       0.04552740       0.02218382       0.02949350       0.00000000
Pb       4.09834997       5.80758459       4.05037435      -0.05259703       0.01222479       0.02254907       0.00000000
Pb       4.07229820       5.82588111      12.20295694       0.00898424      -0.03929362      -0.00233068       0.00000000
Pb       8.18139883      11.62256560      -0.01538924      -0.03165650       0.02765943       0.08395867       0.00000000
Pb       8.19542379      11.64075511       8.15725303      -0.06679263       0.01416533      -0.05278598       0.00000000
Cs       4.69036576       2.90881392       0.37550998      -0.00250671       0.01913748      -0.13315087       0.00000000
Cs       4.66986096       2.90491617       8.53388568       0.02307783       0.02776333      -0.14837131       0.00000000
Cs       7.56264398       8.73494643       4.43459309       0.01551895      -0.01652906      -0.11857034       0.00000000
Cs       7.57474108       8.72266612      12.60097515      -0.00465183      -0.00552189      -0.14338583       0.00000000
Cs       3.51114706       8.74388403       7.75618109      -0.01611779      -0.04049153       0.12018146       0.00000000
Cs       3.49657728       8.72910067      15.90304287       0.01305718      -0.00412747       0.13871979       0.00000000
Cs       0.59789560       2.89628665       3.65286579      -0.01327223       0.01865442       0.14679930       0.00000000
Cs       0.59846408       2.90947768      11.81127253      -0.01196332       0.02780150       0.14033623       0.00000000
Br       2.48812611       5.55248178       1.51998639       0.21022934      -0.11466393       0.06659301       0.00000000
Br       2.50766254       5.57001928       9.69042640       0.08399490      -0.11873352      -0.04535535       0.00000000
Br       1.58191988      11.33866628       5.64833298      -0.07055857      -0.08217487      -0.07161447       0.00000000
Br       1.58124768      11.39654910      13.77338276      -0.07497276      -0.13697010      -0.09975505       0.00000000
Br       1.56227188       6.10504723       5.63879534      -0.00793335       0.09200546      -0.12291186       0.00000000
Br       1.54903839       6.08278189      13.78667286       0.03778396       0.12251848      -0.20510134       0.00000000
Br       5.68079870      11.34588804       6.55972563      -0.06959587      -0.06832547       0.04566079       0.00000000
Br       5.69369448      11.37992874      14.68804749      -0.14892718      -0.12950426       0.02767326       0.00000000
Br       5.66080769       6.07790567       6.57808183      -0.12687158       0.11115475      -0.00320347       0.00000000
Br       5.66050736       6.11005856      14.68252414      -0.09140035       0.10719164       0.06270363       0.00000000
Br       6.55719784       0.27117279       2.48415913       0.14138862       0.09935207       0.02080961       0.00000000
Br       6.57498310       0.30104317      10.63708142       0.09737999       0.07606425       0.04414313       0.00000000
Br       6.59943105       5.56300371       2.50144924       0.06004738      -0.11790743       0.08854106       0.00000000
Br       6.59018310       5.53171047      10.62433047       0.01839247      -0.08413674       0.12125310       0.00000000
Br       2.49988323       0.29186481       1.56111476       0.09707202       0.08906866      -0.03301230       0.00000000
Br       2.50499487       0.27440332       9.71082486       0.11108387       0.09951044      -0.04303768       0.00000000
Br       7.98885630       8.70755832       0.48804251       0.09569846       0.14443842       0.04008195       0.00000000
Br       8.02370279       8.72668768       8.59428888       0.06645167       0.01054257       0.08469944       0.00000000
Br       4.28806307       2.93755491       4.50743732      -0.10293506      -0.22603895       0.06225321       0.00000000
Br       4.28388855       2.91474500      12.66707033      -0.10710526      -0.05134564       0.04991663       0.00000000
Br       0.20718271       2.89707260       7.64823220      -0.09801867       0.04174264      -0.04398182       0.00000000
Br       0.15727680       2.93009394      15.77787391      -0.08552390      -0.17321728      -0.05002409       0.00000000
Br       3.91325920       8.69150769       3.57093622       0.08035849       0.20798408      -0.05886982       0.00000000
Br       3.91713917       8.71319455      11.71954130       0.07829586       0.09673461      -0.05052533       0.00000000
40
Lattice="8.175311264126 0.0 0.0 0.0 11.637323534169 0.0 0.0 0.0 16.259785736408" Properties=species:S:1:pos:R:3:forces:R:3:magmoms:R:1 energy=-144.65202483000002 stress="-0.008310545976729809 0.00011317055663280342 0.00012496943682777277 0.00011317055663280342 -0.008815184516266285 0.0002972649480818089 0.00012496943682777277 0.0002972649480818089 -0.005599177408743275" dipole="0.0 0.0 0.0" magmom=0.0 free_energy=-144.65167839 pbc="T T T"
Pb      -0.00302540       5.83741011       8.13483829       0.01664153      -0.10079433      -0.06010067       0.00000000
Pb       0.00937570       5.80614480      16.24547583      -0.22528060       0.00983177       0.07514047       0.00000000
Pb       4.07828956      -0.01940910       4.06043684      -0.02159045      -0.02119338       0.07533807       0.00000000
Pb       4.07108440      -0.00634663      12.20606546       0.09878078       0.04075036       0.05720804       0.00000000
Pb       4.10886855       5.79648472       4.03581224      -0.11508142       0.05427449       0.07267936       0.00000000
Pb       4.05687197       5.83296402      12.21112575       0.03575136      -0.09873311      -0.01902794       0.00000000
Pb       8.18738467      11.60783916      -0.03049436      -0.06776023       0.06057877       0.19584334       0.00000000
Pb       8.21536775      11.64428137       8.18455504      -0.16816098       0.01762354      -0.14772821       0.00000000
Cs       4.69549750       2.90843524       0.36478000      -0.00855737       0.03271100      -0.12645208       0.00000000
Cs       4.65453196       2.90067553       8.55172533       0.04358750       0.04938465      -0.16076085       0.00000000
Cs       7.54757122       8.74183555       4.41806360       0.03304870      -0.02707861      -0.09692563       0.00000000
Cs       7.57170245       8.71726988      12.62100731      -0.00670476      -0.00173360      -0.14760944       0.00000000
Cs       3.53226018       8.75957608       7.76862104      -0.02511810      -0.07480624       0.10802812       0.00000000
Cs       3.50323203       8.73017166      15.93270456       0.02588430       0.00307230       0.13129123       0.00000000
Cs       0.59811002       2.88328473       3.62686933      -0.02019871       0.03584815       0.15688175       0.00000000
Cs       0.59926046       2.90982498      11.81394075      -0.01731395       0.04867585       0.13705496       0.00000000
Br       2.47223990       5.56259503       1.47715408       0.33164832      -0.13018081       0.17551234       0.00000000
Br       2.50991877       5.59774244       9.68706616       0.07920014      -0.13269820      -0.04071036       0.00000000
Br       1.58176737      11.31647546       5.66765824      -0.05310352      -0.06478693      -0.08904402       0.00000000
Br       1.58036482      11.43197887      13.78749034      -0.05446895      -0.16634672      -0.15401402       0.00000000
Br       1.54308437       6.11500430       5.64789987       0.05934949       0.08256056      -0.18610760       0.00000000
Br       1.51707951       6.07068883      13.81289097       0.16619647       0.14289791      -0.37125772       0.00000000
Br       5.69196084      11.33112320       6.55338958      -0.05291692      -0.03718411       0.03868370       0.00000000
Br       5.71688064      11.39869956      14.67991156      -0.20790109      -0.15328537       0.00237088       0.00000000
Br       5.65114234       6.06076790       6.58964187      -0.15868246       0.11558022      -0.04899789       0.00000000
Br       5.65096942       6.12524881      14.66925558      -0.09051003       0.11320779       0.07754562       0.00000000
Br       6.52177103       0.26589478       2.46683210       0.19308201       0.09538682      -0.00661390       0.00000000
Br       6.55693172       0.32556067      10.64322638       0.10833998       0.05064078       0.03513394       0.00000000
Br       6.60554075       5.58368293       2.50236196       0.03683938      -0.13190061       0.12238567       0.00000000
Br       6.58647591       5.52128847      10.61857925      -0.04254027      -0.06874227       0.18353174       0.00000000
Br       2.49447448       0.30730473       1.55847870       0.10426173       0.07653138      -0.01716979       0.00000000
Br       2.50490303       0.27238709       9.72802211       0.13523630       0.09630096      -0.03488569       0.00000000
Br       7.98354617       8.68873644       0.49503059       0.10206169       0.27513904       0.02620053       0.00000000
Br       8.05312660       8.72550550       8.57800697       0.04491967       0.02311155       0.11324790       0.00000000
Br       4.30733837       2.96323121       4.46881881      -0.11253571      -0.44747382       0.07531596       0.00000000
Br       4.29890982       2.91956985      12.65824890      -0.12474229      -0.09816446       0.04781354       0.00000000
Br       0.23332811       2.88524264       7.64762629      -0.10024603       0.07562862      -0.03588452       0.00000000
Br       0.13332132       2.94890983      15.77694188      -0.07775017      -0.33766533      -0.04884043       0.00000000
Br       3.91990162       8.65728544       3.55771612       0.06778523       0.40172848      -0.06625637       0.00000000
Br       3.92766349       8.69946167      11.72526440       0.06854943       0.19130290      -0.04882001       0.00000000
40
Lattice="8.175311264126 0.0 0.0 0.0 11.637323534169 0.0 0.0 0.0 16.259785736408" Properties=species:S:1:pos:R:3:forces:R:3:magmoms:R:1 energy=-144.50838244999997 stress="-0.008596020414480387 0.0001522046176645845 0.00019994416710440117 0.0001522046176645845 -0.009206494376777764 0.00040675656574903386 0.00019994416710440117 0.00040675656574903386 -0.006035418876086" dipole="0.0 0.0 0.0" magmom=0.0 free_energy=-144.5080205 pbc="T T T"
Pb      -0.00446639       5.84637668       8.13700564       0.01891536      -0.15965273      -0.08494332       0.00000000
Pb       0.01285945       5.79982269      16.23860618      -0.37458984       0.03075716       0.14907911       0.00000000
Pb       4.07339328      -0.02942013       4.05857827      -0.03141680      -0.01945818       0.11682015       0.00000000
Pb       4.06322487      -0.00933385      12.21211340       0.15350169       0.04985908       0.08231922       0.00000000
Pb       4.11899545       5.78548320       4.02138607      -0.17515293       0.10776027       0.12606426       0.00000000
Pb       4.04139637       5.83968357      12.21932026       0.05349025      -0.16147213      -0.03857423       0.00000000
Pb       8.19313696      11.59318963      -0.04489360      -0.10440739       0.09433480       0.31958911       0.00000000
Pb       8.23480373      11.64793990       8.21154839      -0.26214545       0.02148289      -0.22635441       0.00000000
Cs       4.70063886       2.90829038       0.35297461      -0.01895451       0.04260066      -0.11881031       0.00000000
Cs       4.63930596       2.89673627       8.56864068       0.06169524       0.06743933      -0.17818948       0.00000000
Cs       7.53252802       8.74862363       4.40059296       0.05426357      -0.03349257      -0.07577721       0.00000000
Cs       7.56857206       8.71178506      12.64024216      -0.00482914       0.00895692      -0.16361897       0.00000000
Cs       3.55348669       8.77494200       7.78202578      -0.03253750      -0.10709806       0.09775888       0.00000000
Cs       3.51016964       8.73128018      15.96374338       0.03392573       0.01612394       0.12065539       0.00000000
Cs       0.59817979       2.87036197       3.60165406      -0.02774994       0.04818757       0.17234670       0.00000000
Cs       0.59994146       2.91053303      11.81764848      -0.01888556       0.06567856       0.13131970       0.00000000
Br       2.46016307       5.57126755       1.43585343       0.44021549      -0.14347342       0.26310622       0.00000000
Br       2.51316981       5.62424201       9.68316360       0.07304483      -0.14233803      -0.03974963       0.00000000
Br       1.58096697      11.29318462       5.68617259      -0.03637607      -0.05323453      -0.10266215       0.00000000
Br       1.57880720      11.46588429      13.79992356      -0.02856788      -0.18966265      -0.21022860       0.00000000
Br       1.52434861       6.12610540       5.65486939       0.11246019       0.07530699      -0.23706059       0.00000000
Br       1.48669198       6.06016329      13.83496339       0.28345125       0.15863115      -0.53234689       0.00000000
Br       5.70263653      11.31569848       6.54743478      -0.03592985      -0.01147106       0.02950619       0.00000000
Br       5.73786489      11.41587049      14.67169000      -0.25794899      -0.17118628      -0.01970195       0.00000000
Br       5.63941143       6.04479450       6.60076873      -0.17960002       0.11705791      -0.08526304       0.00000000
Br       5.64019667       6.14202938      14.65674332      -0.08165987       0.11671522       0.09629470       0.00000000
Br       6.48819370       0.26170242       2.44918089       0.23456362       0.08880967      -0.03156724       0.00000000
Br       6.53994381       0.35103889      10.64988503       0.12170424       0.02767967       0.02222913       0.00000000
Br       6.61218437       5.60304915       2.50477574       0.02012623      -0.14015143       0.14785642       0.00000000
Br       6.58219928       5.50988394      10.61497889      -0.09094241      -0.05671887       0.23185377       0.00000000
Br       2.49025748       0.32389250       1.55559678       0.11054782       0.06447015      -0.00494624       0.00000000
Br       2.50645438       0.27151352       9.74503708       0.15668355       0.09277263      -0.03221309       0.00000000
Br       7.97940241       8.67299547       0.50243557       0.10738084       0.37325490       0.01481676       0.00000000
Br       8.08351059       8.72458773       8.56287309       0.02586767       0.03322057       0.13520870       0.00000000
Br       4.32551641       2.98382742       4.43057285      -0.11568816      -0.64112878       0.08265666       0.00000000
Br       4.31262554       2.92326889      12.64988478      -0.13843631      -0.13243594       0.04744701       0.00000000
Br       0.25862233       2.87416591       7.64657549      -0.09450613       0.10443734      -0.02831523       0.00000000
Br       0.10808336       2.96388439      15.77540284      -0.07056796      -0.47271476      -0.05083035       0.00000000
Br       3.92746176       8.62746679       3.54350435       0.05622405       0.55919771      -0.07548942       0.00000000
Br       3.93916945       8.68786185      11.73047436       0.06283110       0.27095432      -0.05028573       0.00000000
40
Lattice="8.175311264126 0.0 0.0 0.0 11.637323534169 0.0 0.0 0.0 16.259785736408" Properties=species:S:1:pos:R:3:forces:R:3:magmoms:R:1 energy=-144.35190619 stress="-0.008862735828032375 0.0001769149582637575 0.00027488548658267877 0.0001769149582637575 -0.009590517556252686 0.0005101827722288532 0.00027488548658267877 0.0005101827722288532 -0.006436226709419226" dipole="0.0 0.0 0.0" magmom=0.0 free_energy=-144.35152001 pbc="T T T"
Pb      -0.00584914       5.85478346       8.13881952       0.01805670      -0.20606327      -0.10549721       0.00000000
Pb       0.01465467       5.79351024      16.23229137      -0.50613245       0.04775468       0.21904465       0.00000000
Pb       4.06824451      -0.03973665       4.05722979      -0.03772759      -0.02411487       0.14854392       0.00000000
Pb       4.05591984      -0.01215024      12.21867800       0.20876542       0.06343537       0.10683431       0.00000000
Pb       4.12851441       5.77475377       4.00724495      -0.21879769       0.16012561       0.17574289       0.00000000
Pb       4.02584182       5.84578677      12.22750832       0.06627692      -0.21894248      -0.06247668       0.00000000
Pb       8.19852080      11.57867104      -0.05809642      -0.14006418       0.11965929       0.42562215       0.00000000
Pb       8.25342126      11.65177770       8.23805323      -0.34549386       0.02150712      -0.30612067       0.00000000
Cs       4.70575102       2.90845499       0.34004521      -0.02915670       0.04900744      -0.11169410       0.00000000
Cs       4.62420728       2.89320765       8.58461005       0.07538951       0.08948271      -0.18800197       0.00000000
Cs       7.51756153       8.75531101       4.38219300       0.07500514      -0.03906398      -0.05593518       0.00000000
Cs       7.56533934       8.70624876      12.65868750      -0.00773111       0.01493211      -0.17472599       0.00000000
Cs       3.57492804       8.78985046       7.79643423      -0.04226364      -0.13966252       0.09159409       0.00000000
Cs       3.51750441       8.73253070      15.99633073       0.04008523       0.02640546       0.11200933       0.00000000
Cs       0.59804744       2.85751664       3.57716453      -0.03765886       0.06098246       0.18217643       0.00000000
Cs       0.60049845       2.91173811      11.82239897      -0.02373584       0.08296173       0.12715431       0.00000000
Br       2.45320064       5.57837441       1.39688125       0.52822790      -0.15846583       0.33740566       0.00000000
Br       2.51738178       5.64957070       9.67869254       0.06248803      -0.15267542      -0.03780705       0.00000000
Br       1.57970553      11.26874643       5.70382966      -0.02033944      -0.03727013      -0.11348658       0.00000000
Br       1.57686764      11.49819954      13.81005680      -0.00202233      -0.20808381      -0.26432279       0.00000000
Br       1.50658499       6.13836278       5.65909472       0.15290156       0.06505031      -0.27634836       0.00000000
Br       1.45911441       6.05134880      13.85101061       0.38111876       0.17383136      -0.67746728       0.00000000
Br       5.71310185      11.29980417       6.54171284      -0.02204759       0.01790138       0.02106572       0.00000000
Br       5.75614949      11.43131914      14.66305232      -0.29713367      -0.18734881      -0.03470740       0.00000000
Br       5.62523797       6.02990836       6.61109278      -0.18874382       0.11767845      -0.11325486       0.00000000
Br       5.62819715       6.16059293      14.64513888      -0.06319262       0.11786084       0.12506482       0.00000000
Br       6.45676155       0.25850433       2.43076724       0.27143668       0.08171253      -0.05060567       0.00000000
Br       6.52407820       0.37739934      10.65695724       0.13508387       0.00441253       0.00777301       0.00000000
Br       6.61921557       5.62111876       2.50904557       0.01217336      -0.14977356       0.16269855       0.00000000
Br       6.57672139       5.49754350      10.61413118      -0.12507845      -0.04231856       0.26462215       0.00000000
Br       2.48729950       0.34162153       1.55259290       0.11050832       0.05075417       0.00333780       0.00000000
Br       2.50995107       0.27175350       9.76202249       0.17116823       0.08904373      -0.03296338       0.00000000
Br       7.97648061       8.66147342       0.51017962       0.11305685       0.43939660       0.00212895       0.00000000
Br       8.11485953       8.72405578       8.54906595       0.00670391       0.04494972       0.15899305       0.00000000
Br       4.34267099       2.99703928       4.39251840      -0.11874399      -0.79313891       0.09208484       0.00000000
Br       4.32494485       2.92543071      12.64192099      -0.15370411      -0.15296157       0.05057959       0.00000000
Br       0.28330367       2.86412706       7.64515668      -0.08928134       0.12869469      -0.02186062       0.00000000
Br       0.08144490       2.97340984      15.77321056      -0.05876308      -0.57144324      -0.05283873       0.00000000
Br       3.93586962       8.60383552       3.52806762       0.04218867       0.67767937      -0.08249344       0.00000000
Br       3.95168807       8.67932094      11.73518194       0.05717729       0.33610727      -0.05186827       0.00000000
40
Lattice="8.175311264126 0.0 0.0 0.0 11.637323534169 0.0 0.0 0.0 16.259785736408" Properties=species:S:1:pos:R:3:forces:R:3:magmoms:R:1 energy=-144.21004707 stress="-0.009134581649738675 0.00017924159937910387 0.0003430134061783958 0.00017924159937910387 -0.009924768139520215 0.0005841090288364792 0.0003430134061783958 0.0005841090288364792 -0.0068064773249249" dipole="0.0 0.0 0.0" magmom=0.0 free_energy=-144.20962953 pbc="T T T"
Pb      -0.00718660       5.86246002       8.14018752       0.01359906      -0.24562255      -0.12183152       0.00000000
Pb       0.01411087       5.78724074      16.22682862      -0.60685243       0.05901220       0.27675263       0.00000000
Pb       4.06276856      -0.05046557       4.05654401      -0.04294348      -0.02062804       0.17936157       0.00000000
Pb       4.04938966      -0.01474845      12.22593722       0.25725040       0.07134754       0.13187691       0.00000000
Pb       4.13727519       5.76447034       3.99352490      -0.25810239       0.20013554       0.22574006       0.00000000
Pb       4.01015033       5.85103226      12.23563815       0.07556149      -0.26539447      -0.09260923       0.00000000
Pb       8.20339874      11.56429765      -0.06967060      -0.17024756       0.14278206       0.52191672       0.00000000
Pb       8.27094533      11.65582814       8.26387882      -0.42411385       0.02060951      -0.37171546       0.00000000
Cs       4.71079635       2.90898529       0.32591913      -0.04415197       0.05248095      -0.10275446       0.00000000
Cs       4.60922698       2.89023595       8.59965688       0.08908860       0.11027065      -0.20169343       0.00000000
Cs       7.50271440       8.76190418       4.36284874       0.09800579      -0.04031587      -0.03330200       0.00000000
Cs       7.56195615       8.70066225      12.67637972      -0.00952810       0.02398553      -0.18950338       0.00000000
Cs       3.59667849       8.80416169       7.81193413      -0.05219339      -0.17039512       0.08572157       0.00000000
Cs       3.52534662       8.73401186      16.03068583       0.04599088       0.04193901       0.09621041       0.00000000
Cs       0.59763392       2.84474877       3.55330814      -0.04688142       0.07519151       0.19857725       0.00000000
Cs       0.60089674       2.91358904      11.82822336      -0.02666365       0.09783934       0.11979197       0.00000000
Br       2.45250748       5.58374571       1.36091467       0.58346615      -0.17308051       0.39102490       0.00000000
Br       2.52248108       5.67376197       9.67362899       0.04780397      -0.16486507      -0.03864485       0.00000000
Br       1.57815843      11.24314461       5.72060740      -0.00461614      -0.01762778      -0.12470394       0.00000000
Br       1.57484719      11.52890076      13.81724531       0.02056776      -0.22532151      -0.31236680       0.00000000
Br       1.49018044       6.15177164       5.66005707       0.18165251       0.05210800      -0.30429568       0.00000000
Br       1.43540759       6.04440869      13.85922326       0.45038662       0.18381229      -0.78300482       0.00000000
Br       5.72359988      11.28366928       6.53608340      -0.01017489       0.04893187       0.01259181       0.00000000
Br       5.77132326      11.44491977      14.65373956      -0.32333184      -0.20333254      -0.03823469       0.00000000